LAMMPS FENE chain data file
11 atoms
10 bonds
1 atom types
1 bond types
-129.872397092 129.872397092 xlo xhi 
-129.872397092 129.872397092 ylo yhi 
-12.9872397092 12.9872397092 zlo zhi 

Masses

1 1.0 

Atoms

1     1 1  -100.493 124.921 -9.297    1  1 1 0. 0. 0. 0.
2     1 1  -98.1669 114.712 -8.822    1  1 1 0. 0. 0. 0.
3     1 1  -105.113 111.118 -6.809    1  1 1 0. 0. 0. 0.
4     1 1  -109.612 107.256 -4.316     1  1 1 0. 0. 0. 0.
5     1 1  -111.706 103.445 -8.997    1  1 1 0. 0. 0. 0.
6     1 1  -108.48 97.904 -8.306     1  1 1 0. 0. 0. 0.
7     1 1  -116.487 93.504 -3.521    1  1 1 0. 0. 0. 0.
8     1 1  -115.789 85.646 -4.134    1  1 1 0. 0. 0. 0.
9     1 1  -115.317 78.980 -4.137    1  1 1 0. 0. 0. 0.
10    1 1  -122.011 80.645 -1.357    1  1 1 0. 0. 0. 0.
11    1 1  -126.976 80.933 0.209    1  1 1 0. 0. 0. 0.

Bonds

1 1 1 2 
2 1 2 3 
3 1 3 4 
4 1 4 5 
5 1 5 6 
6 1 6 7 
7 1 7 8 
8 1 8 9 
9 1 9 10
10 1 10 11
