% Model:              electrostatics-slit-charged-with-DBC.mph
% Version:            COMSOL 5.3.0.223
% Date:               Feb 16 2020, 16:44
% Dimension:          3
% Nodes:              339
% Expressions:        4
% Description:        Electric field, x component, Electric field, y component, Electric field, z component, potential
% Length unit:        µm
% x                       y                        z                        es.Ex (V/m)              es.Ey (V/m)              es.Ez (V/m)              phi (V)
-0.09999999999999995      0                        0                        -5149.531261000749       -3.7177790282389576E-13  -3.748306685705554E-11   3.077831697304687E-19
-0.09987643094066342      0                        0                        -5148.618741186779       0.1096115079772062       9.1661154482465          6.362911579407754E-7
-0.09927874724944531      0                        0                        -5145.956532866163       -0.08158114331399702     55.98124866121725        3.7127410326001366E-6
-0.0979653244177072       0                        0                        -5138.2427245971785      0.6460737053207595       160.4798199493992        1.0467715901251378E-5
-0.09743184154501809      0                        0                        -5138.106527315685       -1.272274331961853       199.0210250231562        1.3208630173231476E-5
-0.09738137596377418      0                        0                        -5138.007422398721       -1.2849753072978274      202.70807760316734       1.3467925204932058E-5
-0.09728551400688143      0                        0                        -5139.391054576519       -1.6571774252279283      209.8946890128314        1.396065024947442E-5
-0.09724585977524734      0                        0                        -5139.52496435195        0.5400419974766919       213.23721313747592       1.4164464223240264E-5
-0.09575773890707275      0                        0                        -5120.483436408327       -0.9935562664509803      325.6672027884831        2.179853052764928E-5
-0.09474738594162731      0                        0                        -5112.718615889124       -0.33886953841283685     407.5520217506137        2.6967345412383586E-5
-0.09370668851078919      0                        0                        -5093.517341735472       0.21765830730237212      494.41078532184383       3.227831901293322E-5
-0.09350161539374031      0                        0                        -5090.234752924585       0.11085783951966732      510.3510353388979        3.3322525905585665E-5
-0.09240546120517865      0                        0                        -5073.201252128538       -2.0589797775119223      594.7855435563583        3.8892591461840327E-5
-0.09213163862891235      0                        0                        -5065.682753423325       -0.13673628922742864     616.8521093849145        4.028112807202749E-5
-0.09200874380781925      0                        0                        -5062.96888676541        0.07050123380304285      626.3408255031659        4.0903507487645275E-5
-0.09162430443440293      0                        0                        -5055.805711384623       1.2589644391955517       657.4052005162066        4.284906851195429E-5
-0.09092153954075098      0                        0                        -5039.5078900115         0.9501388162007061       714.6191481309029        4.6395529678478235E-5
-0.08998411152806275      0                        0                        -5022.556846145002       -1.155500203365591       793.4200232582061        5.1111036770725386E-5
-0.08752849157057856      0                        0                        -4948.264626732533       -0.04126230655128893     1000.7779794486551       6.335331087138041E-5
-0.0872138810008503       0                        0                        -4939.7929286574235      1.1173439605754538       1028.5390949654939       6.490884790519749E-5
-0.08697256898108513      0                        0                        -4933.843714006583       0.8135004934665631       1050.7306558580503       6.610020536940927E-5
-0.08655801696788733      0                        0                        -4920.163717972179       -4.928778301960847       1087.2457859653787       6.814060920207917E-5
-0.08638362328029224      0                        0                        -4914.093229560836       -4.492957211168687       1103.1652811752028       6.899812536899817E-5
-0.08528579887882091      0                        0                        -4875.638387260067       -1.492913540409063       1201.5820536966726       7.437200239127949E-5
-0.0843904880858532       0                        0                        -4844.018876366863       0.2668728376957006       1282.293929832495        7.87230594173156E-5
-0.08395932620893326      0                        0                        -4828.772025033808       -1.5590806729296673      1321.8130505519207       8.080720847151242E-5
-0.08336627662553917      0                        0                        -4804.425465994807       0.5970419046853976       1377.3813172443565       8.366369035091618E-5
-0.08308271830376757      0                        0                        -4794.210843490386       -1.041472076329228       1404.2578455507482       8.502437472688597E-5
-0.08232189286429223      0                        0                        -4765.490663501469       -0.040472034215781605    1476.188382760989        8.866088988198694E-5
-0.08130252869789012      0                        0                        -4720.329982586909       0.12606089545897703      1577.0914304774033       9.349564270975687E-5
-0.0804023785744627       0                        0                        -4680.450816888158       0.27311789637315087      1666.1939257875383       9.772669970823767E-5
-0.08021973957179449      0                        0                        -4673.052474044969       -0.3322854916623328      1687.5260654364392       9.858108452564872E-5
-0.07932372033119141      0                        0                        -4633.7862689075155      -0.2715962558422689      1778.2471419610467       1.0275063781708653E-4
-0.07916242459748503      0                        0                        -4626.7700664573385      0.08817122767686669      1795.048693270337        1.034974207549898E-4
-0.07871016537725938      0                        0                        -4605.383643544006       0.658269185507379        1841.8776566735978       1.0558446697474392E-4
-0.0782332259120385       0                        0                        -4583.065358325608       0.8529105772904586       1893.4899379342642       1.077756339513244E-4
-0.07753515798104449      0                        0                        -4550.744199470242       1.484172926255269        1968.6874019817656       1.1096352337868162E-4
-0.07629715062975481      0                        0                        -4490.713246632501       -1.2004172124579782      2106.196521294246        1.1655934339725583E-4
-0.07620459854246546      0                        0                        -4485.573041619801       -1.120099814814239       2116.681249188907        1.1697473041329806E-4
-0.07618836545184964      0                        0                        -4485.256752697157       -0.6913209782651393      2118.9942297287307       1.1704754700042905E-4
-0.0740561323546049       0                        0                        -4371.848212968758       0.5185855835516122       2367.342005116974        1.2649025317721088E-4
-0.07289159683776995      0                        0                        -4307.769797712601       1.7124408638737805       2513.6223737481378       1.3155022561194446E-4
-0.07238283007848507      0                        0                        -4288.314690024992       -0.2719644384735602      2574.760048723667        1.337357329854537E-4
-0.07176772646338236      0                        0                        -4252.23936274864        0.08867885851759638      2657.116144176027        1.3636246262641838E-4
-0.07143324679999782      0                        0                        -4233.1146599653475      0.07554762919517088      2701.5827150991136       1.377815518050263E-4
-0.07051452083204451      0                        0                        -4181.667221941592       0.05870771186073398      2823.868634820821        1.4164649363265455E-4
-0.0701024978953081       0                        0                        -4162.802394945771       -1.1680314252021162      2880.000775516235        1.4336487019244945E-4
-0.06958690824629127      0                        0                        -4130.530544173009       -0.7351067833260458      2953.4714975197203       1.4550284850207954E-4
-0.06940381796964812      0                        0                        -4119.07053504169        -0.5813715549411427      2979.5615767958443       1.4625805937397405E-4
-0.06760566614778526      0                        0                        -4016.000907345799       0.7122742017180315       3241.780649453807        1.5357016056517385E-4
-0.06728862030534571      0                        0                        -4003.593582896894       3.268320470415347        3290.9734446052607       1.548420119703846E-4
-0.06676781224710113      0                        0                        -3971.1676637783457      -1.565425082721049       3367.3725965905687       1.5691369570064798E-4
-0.06563360481559455      0                        0                        -3901.733613833705       1.4987570472439984       3552.928404181832        1.613784472689406E-4
-0.0652720035897392       0                        0                        -3879.597065545837       2.475661256881722        3612.08619633317         1.6278531662516544E-4
-0.06436598986715591      0                        0                        -3818.2614134466057      0.46868995395198         3760.430898854931        1.6627289375593598E-4
-0.06428278454385689      0                        0                        -3814.0641043400647      0.3398572413570946       3775.0089813834347       1.6659041881205143E-4
-0.06398863488446871      0                        0                        -3805.4310699765047      -1.0055256325867958      3818.2014531112136       1.6771014210846294E-4
-0.062134186603781026     0                        0                        -3685.3132461540954      1.1762359470703814       4161.409365674268        1.7465643087620362E-4
-0.062013779949422615     0                        0                        -3680.855419132542       -0.23601749532463145     4183.304030093037        1.7509969097388083E-4
-0.06193954677978677      0                        0                        -3676.605908737928       -0.21267650406298344     4197.411355887507        1.7537277481130136E-4
-0.06157473069488131      0                        0                        -3657.6077823502856      1.1580584363400703       4266.815155221018        1.767106293117633E-4
-0.061085109466952024     0                        0                        -3628.3155433992906      3.4505542837978282       4361.23677747446         1.7849507455682066E-4
-0.05926903710943188      0                        0                        -3507.9414785240915      1.4829220196043025       4723.46621447504         1.849750541136578E-4
-0.05918291350444532      0                        0                        -3501.9591883152207      3.1437791447606287       4741.161479168135        1.8527691062100303E-4
-0.05854215678390237      0                        0                        -3467.031219073433       1.865832537325332        4877.848646478182        1.8750952710533495E-4
-0.05756304534976677      0                        0                        -3413.1321609628976      3.3391341789683793       5092.1756134231655       1.9087775042239233E-4
-0.05738529295085751      0                        0                        -3403.347077729213       3.606604144035373        5131.085518054264        1.914835731907886E-4
-0.05664063881517564      0                        0                        -3350.2837673778704      -1.46572754148292        5302.276480855653        1.9399488027251407E-4
-0.05645078056891475      0                        0                        -3338.981892888347       -2.062552705152484       5345.411468156104        1.9462988639602972E-4
-0.0559626709674689       0                        0                        -3307.362881238646       -2.637046302566887       5457.791217141043        1.9625385664871688E-4
-0.0555453256071998       0                        0                        -3273.678739377401       -1.3247087668132735      5556.60676593081         1.9762714024176782E-4
-0.054792010619778474     0                        0                        -3234.442123866129       0.34052149217495753      5744.980390989924        2.0007777300914167E-4
-0.05440484491563358      0                        0                        -3213.1563639127526      -0.9453300214445335      5843.4491795034155       2.0132591971341618E-4
-0.05395955254265405      0                        0                        -3188.6618205437044      -2.454643937788205       5956.714288004312        2.0275126011878609E-4
-0.05371050823831205      0                        0                        -3167.319097364403       -0.5874203054991085      6023.282300138221        2.0354199246534857E-4
-0.05328317048048819      0                        0                        -3141.202638440882       0.4441728773781506       6136.095489661311        2.0488982619272018E-4
-0.05222320422281332      0                        0                        -3070.760206239338       2.5187464759364957       6425.850367143772        2.0818604401983058E-4
-0.05169708737242676      0                        0                        -3025.987071905186       5.368127062320127        6571.206457689703        2.097898447576207E-4
-0.05093572618009343      0                        0                        -2993.2325479903593      -1.6339682195248315      6803.28670534979         2.120871426053331E-4
-0.05068072030709747      0                        0                        -2977.0729360789774      -1.1237529849167913      6878.194037663779        2.128483740863421E-4
-0.048930155233028155     0                        0                        -2858.1786903900575      -1.2959289292339236      7423.449744201178        2.1796570071766887E-4
-0.048891635496742664     0                        0                        -2854.72363425848        -1.4136489685915876      7435.853014725377        2.1807573046315397E-4
-0.04785101757092571      0                        0                        -2800.62551268933        -1.7399338818577235      7799.414082595591        2.2102184813443235E-4
-0.046610818240223194     0                        0                        -2742.7381607231946      -12.49318080876401       8211.506295298881        2.2444949653161676E-4
-0.04657284122099353      0                        0                        -2726.534165085337       -1.5200105175681529      8238.507969192957        2.2455362966395504E-4
-0.04653492295537748      0                        0                        -2723.16869973571        -1.0665205818386312      8253.808106822253        2.2465696572402763E-4
-0.0465189621845651       0                        0                        -2722.130358310602       -1.0011382457651052      8259.264877087684        2.2470042130916276E-4
-0.04649763267874232      0                        0                        -2723.8468636110338      -1.0678624332031177      8265.456968756967        2.2475846820598337E-4
-0.04646138481868514      0                        0                        -2720.794690204115       -1.0900195660174177      8278.815883379666        2.2485714650853547E-4
-0.04640658606577941      0                        0                        -2716.361775684767       -1.1227799621378836      8298.733280487164        2.250061097653959E-4
-0.046399786676563325     0                        0                        -2715.863549345653       -1.1116572169767096      8301.30747443268         2.2502457767254299E-4
-0.046349529766457565     0                        0                        -2676.9957692098214      -32.931361181414104      8295.624245482395        2.2515915584808092E-4
-0.04634368605261241      0                        0                        -2676.8077167360625      -32.83823569549713       8297.949217520923        2.2517479889585853E-4
-0.043300933079207404     0                        0                        -2520.5279684803045      -4.7212802435860795      9510.947742315751        2.3311838464869602E-4
-0.04325157773968244      0                        0                        -2523.418904063452       -5.9548541112294515      9529.707691720265        2.3324271400701553E-4
-0.04325060620839066      0                        0                        -2523.3358952942945      -5.949578962125997       9530.12136575771         2.332451655471203E-4
-0.04273401751269809      0                        0                        -2462.380940632448       -2.618657584229368       9743.631432015674        2.3453729176512727E-4
-0.04193047913503561      0                        0                        -2433.751778590728       -0.4682813441813778      10104.02446951015        2.3650440703613964E-4
-0.04112139014250399      0                        0                        -2389.0881879707595      -2.6102111167756448      10471.673731025374       2.3845640732521645E-4
-0.04032898972548665      0                        0                        -2319.0625620016217      -3.139263507327996       10845.87351344763        2.4032177763404572E-4
-0.03917536573303418      0                        0                        -2257.5513504412665      3.7125473122705444       11433.826919903051       2.4297921528598974E-4
-0.039006775090599716     0                        0                        -2250.876096994456       6.546700105995114        11524.820960475583       2.4335956606407296E-4
-0.0389558675908945       0                        0                        -2247.7448214950055      6.54587358932622         11550.840523732797       2.434740728356139E-4
-0.038188036607291725     0                        0                        -2215.259062830002       8.810075664801843        11948.272969310943       2.451874103915882E-4
-0.0374806294132016       0                        0                        -2158.275681921481       5.063372299391631        12333.979764032796       2.467238186107967E-4
-0.03698998223926447      0                        0                        -2138.6544221576405      7.783459167236288        12605.02396389674        2.4777795691688245E-4
-0.03696255438986587      0                        0                        -2137.1195177319314      7.7024738296167925       12620.70223713691        2.4783660056609797E-4
-0.036149854361589046     0                        0                        -2081.129391950754       -1.816217327800132       13091.718704452454       2.4954401339057184E-4
-0.034238205151187945     0                        0                        -1958.194513265018       -7.131212580483407       14265.123386831183       2.5340489856755195E-4
-0.03340198195070129      0                        0                        -1919.6927878850147      29.514236191993405       14782.759641336757       2.550297340348522E-4
-0.03331379902465234      0                        0                        -1936.1500204300683      13.181695502571529       14897.638300544117       2.5520060584427267E-4
-0.033312383501106935     0                        0                        -1936.100349191518       13.182423591802944       14898.544731154048       2.5520334647505857E-4
-0.03326424017597273      0                        0                        -1870.6521436340554      -7.716524989518803       14921.532903316547       2.55293398166837E-4
-0.03326351311641382      0                        0                        -1877.4721948134102      -1.238437035906827       14912.613065886602       2.552947582441208E-4
-0.032854310175526175     0                        0                        -1918.3011818374944      -45.4523218140821        15150.326841731425       2.560604357120212E-4
-0.03239731908141591      0                        0                        -1860.5271093355332      11.904727026994806       15506.37754570532        2.569281783245784E-4
-0.030384570595640092     0                        0                        -1707.2486040567323      -3.0550841791191488      16997.26333286828        2.605238710604389E-4
-0.029134959728153303     0                        0                        -1672.5254143784823      -18.205669783441408      18007.86298145539        2.6263557223198195E-4
-0.02836737388367222      0                        0                        -1629.146610568705       -11.01112293213373       18653.58556919959        2.6391119312119035E-4
-0.027364501801861674     0                        0                        -1526.517884554156       11.070450890954817       19501.163489512648       2.6549524166538175E-4
-0.027289756768991008     0                        0                        -1555.7271319042338      -11.935676790584694      19560.62532047993        2.656090557319755E-4
-0.02726052778761745      0                        0                        -1553.5763711541804      -11.84288848649885       19586.21581394918        2.656544966190633E-4
-0.02725955079579542      0                        0                        -1553.5044810107647      -11.839786995769828      19587.071187679874       2.656560144153547E-4
-0.026242743243047928     0                        0                        -1456.9170252756585      11.652267689749351       20494.64979742671        2.672063303176351E-4
-0.023983329768763106     0                        0                        -1370.3998050070113      -5.9750417718460085      22677.650055098013       2.704091347093458E-4
-0.023967213433935125     0                        0                        -1374.62775068904        -18.3977300045226        22710.710163102558       2.7043129369641903E-4
-0.02364197687391162      0                        0                        -1322.491559551543       19.649616784026875       23043.079578418197       2.708763260434199E-4
-0.02343835348165868      0                        0                        -1307.238780550886       19.650045113081433       23240.94295818475        2.711440633497009E-4
-0.02335714942721845      0                        0                        -1354.9990183594564      10.219060772054945       23349.761744888354       2.712553038432E-4
-0.023251169237553715     0                        0                        -1344.9531759996862      10.004818406756385       23462.174000111903       2.7139837456602187E-4
-0.023035765976773783     0                        0                        -1285.640662766411       -25.215425343514653      23640.862778473354       2.716766986555867E-4
-0.022895147813012908     0                        0                        -1277.19786517592        -26.986352283522137      23794.65602941945        2.718568894794941E-4
-0.02034579313130236      0                        0                        -1126.4460789021177      22.935551386541192       26555.213276018272       2.749585587775108E-4
-0.020322361499807207     0                        0                        -1172.9159862004017      -14.829283277285867      26617.441838506566       2.7498605987153873E-4
-0.020072956218604773     0                        0                        -1112.061007127806       -42.2546627981028        26862.377504944598       2.752638366999929E-4
-0.01932803356520213      0                        0                        -1105.4666169575994      29.19554850109853        27715.58010061438        2.7609161666183337E-4
-0.019254222269560025     0                        0                        -1100.7764826928023      28.397499720580527       27800.102554456556       2.761730394926767E-4
-0.017583080596633577     0                        0                        -952.3474583545976       -11.999861081905692      29781.74235478122        2.779238652933508E-4
-0.017420624593084244     0                        0                        -893.2921424964588       -18.278856046719056      29994.95975984801        2.7807762057349694E-4
-0.01730495626691142      0                        0                        -978.5403738452951       -77.82476683010464       30024.098819272625       2.78180536425784E-4
-0.017224564874603165     0                        0                        -971.7222019191395       -78.76285598591312       30119.00915014326        2.7825892858770025E-4
-0.016302523080869546     0                        0                        -905.1900053441714       26.7928998235584         31218.234772589196       2.7913849929791596E-4
-0.016194152179959537     0                        0                        -899.0000954388233       26.69022698054323        31346.316885803317       2.792362601512334E-4
-0.013845651260945141     0                        0                        -773.0073884049489       23.926196767897636       34215.72895252811        2.8120792363361345E-4
-0.013552334493449253     0                        0                        -760.9648336887185       27.25201750080305        34603.55794340558        2.814452675301252E-4
-0.012562841356937665     0                        0                        -701.9712281784741       20.771298853138433       35758.82843468091        2.821690501263116E-4
-0.012534633357636103     0                        0                        -687.3077188917669       -23.270948191353455      35749.68809139564        2.821884629154752E-4
-0.012518227150586175     0                        0                        -695.642508645029        30.971103991760174       35856.29682885889        2.822005181392827E-4
-0.011122748928001164     0                        0                        -585.7753562674407       62.955856114582275       37410.778806080605       2.8312594692995357E-4
-0.010680754114365032     0                        0                        -578.0562336496951       43.36922556445643        37887.375926215616       2.8337713742041177E-4
-0.009930647465652004     0                        0                        -547.4704359883035       4.397533887135069        38691.79440785004        2.8379926993951133E-4
-0.008977869148961093     0                        0                        -467.56638511899746      -66.14491114448174       39721.21561187607        2.843023802818061E-4
-0.008505446412371137     0                        0                        -528.2170516123297       -75.81169563696312       40202.484561362864       2.845318238783948E-4
-0.007287820436554459     0                        0                        -367.9724884063762       38.39948353206273        41306.15185291886        2.850774357099859E-4
-0.007011376884737408     0                        0                        -447.2720066608963       -51.82831667469145       41479.91244795469        2.851741306709664E-4
-0.006718577112090951     0                        0                        -475.8409650480353       -63.92158399408436       41744.48366507578        2.85309274305088E-4
-0.006040700635441626     0                        0                        -307.1300942877235       -114.72816618187699      42150.16037659373        2.8554635347217625E-4
-0.005865333425538549     0                        0                        -299.70381509913545      -98.96053160990868       42257.00049548483        2.855995628569583E-4
-0.005830380602949158     0                        0                        -298.22366713346446      -95.81784983859143       42278.29503351781        2.85610012483562E-4
-0.004440322121769452     0                        0                        -279.3735832604725       17.954702316066687       43337.57294133048        2.86072951990807E-4
-0.00359347607790797      0                        0                        -89.62546393017692       64.1085852590295         43824.32935232924        2.8623313613820915E-4
-0.0033975902538140312    0                        0                        -119.58541750743461      45.09423983878514        43907.93152894159        2.862536268611691E-4
-0.0028013713296646536    0                        0                        -194.20645403366507      10.775857946478936       44151.19659498582        2.863521103434772E-4
-0.001894524876825565     0                        0                        -183.09244474433945      35.91073068421974        44420.17734838568        2.8652318642748565E-4
-3.0139494708730782E-5    0                        0                        108.10264002985787       32.552992734883446       44641.908413210855       2.8656079212802034E-4
1.1033479609956487E-6     0                        0                        123.51399051808403       -12.797861940431176      44648.47021767993        2.865569990470542E-4
2.0921011532060163E-6     0                        0                        416.7604850596981        -223.51035293345922      44787.049179635374       2.865565870187068E-4
1.0913940125201194E-5     0                        0                        -11.143031658197287      26.4333603024279         44903.77241446771        2.865565665955331E-4
1.1000331552463159E-5     0                        0                        1.0625882463282323       30.588745446559187       44902.55699758962        2.8655656755916507E-4
1.1118699927786801E-5     0                        0                        96.10760957631283        64.11792711249655        44770.149333373716       2.8655656743379145E-4