# vtk DataFile Version 4.0
Polymer chain
ASCII
DATASET POLYDATA
POINTS 11 float
-101.594104 122.369309 -8.683291 
-96.918981 113.450221 -9.727101 
-103.290144 108.868585 -4.670149 
-108.936690 109.412399 -4.222355 
-113.643849 101.959052 -10.079555 
-109.128729 95.315680 -8.113502 
-117.891758 93.108257 -3.906555 
-113.829217 87.358856 -1.530849 
-113.641798 79.519663 -4.416263 
-123.633681 79.774281 0.186263 
-126.414600 81.291464 1.848683 

LINES 10 30
2 0 1
2 1 2
2 2 3
2 3 4
2 4 5
2 5 6
2 6 7
2 7 8
2 8 9
2 9 10
POINT_DATA 11
SCALARS bead_type int
LOOKUP_TABLE default 
0 
0 
0 
0 
0 
0 
0 
0 
0 
0 
0 
