# vtk DataFile Version 4.0
Polymer chain
ASCII
DATASET POLYDATA
POINTS 11 float
-100.493000 124.921000 -9.297000 
-98.166900 114.712000 -8.822000 
-105.113000 111.118000 -6.809000 
-109.612000 107.256000 -4.316000 
-111.706000 103.445000 -8.997000 
-108.480000 97.904000 -8.306000 
-116.487000 93.504000 -3.521000 
-115.789000 85.646000 -4.134000 
-115.317000 78.980000 -4.137000 
-122.011000 80.645000 -1.357000 
-126.976000 80.933000 0.209000 

LINES 10 30
2 0 1
2 1 2
2 2 3
2 3 4
2 4 5
2 5 6
2 6 7
2 7 8
2 8 9
2 9 10
POINT_DATA 11
SCALARS bead_type int
LOOKUP_TABLE default 
0 
0 
0 
0 
0 
0 
0 
0 
0 
0 
0 
