# vtk DataFile Version 4.0
Polymer chain
ASCII
DATASET POLYDATA
POINTS 11 float
-99.947462 123.154112 -8.568261 
-96.695963 113.563295 -9.829606 
-102.000657 107.659227 -4.723398 
-108.903962 107.289303 -4.619215 
-114.273832 102.944763 -9.848112 
-110.268075 95.262045 -7.595153 
-117.539043 91.586722 -4.934800 
-114.420517 86.271580 -0.875175 
-113.659986 79.549278 -3.644846 
-125.215820 79.309613 -0.122156 
-126.420191 80.586178 2.230512 

LINES 10 30
2 0 1
2 1 2
2 2 3
2 3 4
2 4 5
2 5 6
2 6 7
2 7 8
2 8 9
2 9 10
POINT_DATA 11
SCALARS bead_type int
LOOKUP_TABLE default 
0 
0 
0 
0 
0 
0 
0 
0 
0 
0 
0 
