# vtk DataFile Version 4.0
Polymer chain
ASCII
DATASET POLYDATA
POINTS 11 float
-102.194576 123.363384 -9.505575 
-96.424154 113.762178 -9.266567 
-103.266718 108.898519 -4.006974 
-108.851477 108.314206 -3.260645 
-112.985751 102.510010 -9.042354 
-108.212843 97.032927 -7.566312 
-116.917537 91.900857 -4.691425 
-113.023226 87.478018 -0.725156 
-114.743587 80.216277 -5.372703 
-122.721116 79.205423 -0.172006 
-125.182872 81.615240 0.313230 

LINES 10 30
2 0 1
2 1 2
2 2 3
2 3 4
2 4 5
2 5 6
2 6 7
2 7 8
2 8 9
2 9 10
POINT_DATA 11
SCALARS bead_type int
LOOKUP_TABLE default 
0 
0 
0 
0 
0 
0 
0 
0 
0 
0 
0 
