# vtk DataFile Version 4.0
Polymer chain
ASCII
DATASET POLYDATA
POINTS 11 float
-99.304334 121.852489 -8.328166 
-97.228900 113.892212 -9.485369 
-102.198462 108.287164 -4.264623 
-108.674624 106.339790 -4.129377 
-113.445491 101.812794 -9.507224 
-110.162209 96.723906 -7.888564 
-117.337512 90.478719 -4.470070 
-114.553951 86.478673 -0.670117 
-114.812593 78.507306 -3.002866 
-126.065025 79.186692 -0.019992 
-127.433363 81.878938 1.303874 

LINES 10 30
2 0 1
2 1 2
2 2 3
2 3 4
2 4 5
2 5 6
2 6 7
2 7 8
2 8 9
2 9 10
POINT_DATA 11
SCALARS bead_type int
LOOKUP_TABLE default 
0 
0 
0 
0 
0 
0 
0 
0 
0 
0 
0 
