# vtk DataFile Version 4.0
Polymer chain
ASCII
DATASET POLYDATA
POINTS 11 float
-100.253617 124.873310 -9.975131 
-96.625561 114.760302 -8.083439 
-104.552864 109.424434 -4.604002 
-110.579366 106.483161 -4.105971 
-112.841575 102.072506 -9.647995 
-108.034595 98.441717 -7.332534 
-116.657583 94.286974 -4.182876 
-114.323711 85.862528 -1.257498 
-114.636668 79.121353 -4.149329 
-121.962144 80.051499 -0.840816 
-126.075413 81.378559 1.211426 

LINES 10 30
2 0 1
2 1 2
2 2 3
2 3 4
2 4 5
2 5 6
2 6 7
2 7 8
2 8 9
2 9 10
POINT_DATA 11
SCALARS bead_type int
LOOKUP_TABLE default 
0 
0 
0 
0 
0 
0 
0 
0 
0 
0 
0 
